
Host: HongzhoudeMacBook-Pro.local

Timers On : Sun Jul 30 10:08:35 2017
Timers Off: Sun Jul 30 10:08:49 2017

Wall Time:       13.86 seconds


-----------------------------------------------------------

***********************************************************

Host: HongzhoudeMacBook-Pro.local

Timers On : Sun Jul 30 10:39:24 2017
Timers Off: Sun Jul 30 10:39:33 2017

Wall Time:        9.59 seconds


-----------------------------------------------------------

***********************************************************

Host: HongzhoudeMacBook-Pro.local

Timers On : Sun Jul 30 10:39:43 2017
Timers Off: Sun Jul 30 10:39:43 2017

Wall Time:        0.39 seconds


-----------------------------------------------------------

***********************************************************

Host: ulysses

Timers On : Sun Jul 30 15:58:51 2017
Timers Off: Sun Jul 30 15:58:51 2017

Wall Time:        0.72 seconds


-----------------------------------------------------------

***********************************************************

Host: ulysses

Timers On : Sun Jul 30 15:59:40 2017
Timers Off: Sun Jul 30 15:59:40 2017

Wall Time:        0.20 seconds


-----------------------------------------------------------

***********************************************************

Host: ulysses

Timers On : Sun Jul 30 15:59:49 2017
Timers Off: Sun Jul 30 15:59:52 2017

Wall Time:        3.90 seconds


-----------------------------------------------------------

***********************************************************

Host: ulysses

Timers On : Sun Jul 30 16:00:36 2017
Timers Off: Sun Jul 30 16:00:37 2017

Wall Time:        0.92 seconds


-----------------------------------------------------------

***********************************************************

Host: ulysses

Timers On : Sun Jul 30 16:03:51 2017
Timers Off: Sun Jul 30 16:03:51 2017

Wall Time:        0.19 seconds


-----------------------------------------------------------

***********************************************************

Host: ulysses

Timers On : Sun Jul 30 16:22:12 2017
Timers Off: Sun Jul 30 16:22:12 2017

Wall Time:        0.66 seconds


-----------------------------------------------------------

***********************************************************

Host: ulysses

Timers On : Sun Jul 30 16:23:38 2017
Timers Off: Sun Jul 30 16:23:39 2017

Wall Time:        0.56 seconds


-----------------------------------------------------------

***********************************************************

Host: ulysses

Timers On : Sun Jul 30 16:28:13 2017
Timers Off: Sun Jul 30 16:28:14 2017

Wall Time:        0.82 seconds


-----------------------------------------------------------

***********************************************************

Host: ulysses

Timers On : Sun Jul 30 16:28:46 2017
Timers Off: Sun Jul 30 16:28:46 2017

Wall Time:        0.60 seconds


-----------------------------------------------------------

***********************************************************

Host: ulysses

Timers On : Sun Jul 30 16:29:09 2017
Timers Off: Sun Jul 30 16:29:10 2017

Wall Time:        0.63 seconds


-----------------------------------------------------------

***********************************************************

Host: ulysses

Timers On : Sun Jul 30 16:29:43 2017
Timers Off: Sun Jul 30 16:29:44 2017

Wall Time:        0.65 seconds


-----------------------------------------------------------

***********************************************************

Host: ulysses

Timers On : Sun Jul 30 16:29:59 2017
Timers Off: Sun Jul 30 16:30:00 2017

Wall Time:        0.81 seconds


-----------------------------------------------------------

***********************************************************

Host: ulysses

Timers On : Sun Jul 30 16:30:15 2017
Timers Off: Sun Jul 30 16:30:15 2017

Wall Time:        0.69 seconds


-----------------------------------------------------------

***********************************************************

Host: ulysses

Timers On : Sun Jul 30 16:30:43 2017
Timers Off: Sun Jul 30 16:30:44 2017

Wall Time:        0.79 seconds


-----------------------------------------------------------

***********************************************************

Host: ulysses

Timers On : Sun Jul 30 16:36:47 2017
Timers Off: Sun Jul 30 16:36:48 2017

Wall Time:        0.76 seconds


-----------------------------------------------------------

***********************************************************

Host: ulysses

Timers On : Sun Jul 30 16:39:17 2017
Timers Off: Sun Jul 30 16:39:18 2017

Wall Time:        0.68 seconds


-----------------------------------------------------------

***********************************************************

Host: ulysses

Timers On : Sun Jul 30 16:39:47 2017
Timers Off: Sun Jul 30 16:39:47 2017

Wall Time:        0.63 seconds


-----------------------------------------------------------

***********************************************************

Host: ulysses

Timers On : Sun Jul 30 16:43:42 2017
Timers Off: Sun Jul 30 16:43:43 2017

Wall Time:        0.75 seconds


-----------------------------------------------------------

***********************************************************
